
#(C) 2021 by FIZ Karlsruhe - Leibniz Institute for Information Infrastructure.  All rights reserved.
data_165282-ICSD
_database_code_ICSD 165282
_audit_creation_date 2010-02-01
_chemical_name_common 'Chromium phosphate(V) - alpha'
_chemical_formula_structural 'Cr (P O4)'
_chemical_formula_sum 'Cr1 O4 P1'
_chemical_name_structure_type FeAsO4
_exptl_crystal_density_diffrn 3.5
_diffrn_ambient_temperature 2.
_citation_title
'Magnetic structures and properties of alpha-(Cr P O4) and alpha-(Cr As O4)'
loop_
_citation_id
_citation_journal_full
_citation_year
_citation_journal_volume
_citation_page_first
_citation_page_last
_citation_journal_id_ASTM
primary 'Inorganic Chemistry' 1989 28 1207 1213 INOCAJ
loop_
_citation_author_citation_id
_citation_author_name
primary 'Attfield, J.P.'
primary 'Battle, P.D.'
primary 'Cheetham, A.K.'
primary 'Johnson, D.C.'
_cell_length_a 10.3797(1)
_cell_length_b 12.8452(2)
_cell_length_c 6.2797(1)
_cell_angle_alpha 90.
_cell_angle_beta 90.
_cell_angle_gamma 90.
_cell_volume 837.27
_cell_formula_units_Z 12
_space_group_name_H-M_alt 'I m m a'
_space_group_IT_number 74
loop_
_space_group_symop_id
_space_group_symop_operation_xyz
1 '-x, y+1/2, -z'
2 '-x, -y+1/2, z'
3 '-x, y, z'
4 '-x, -y, -z'
5 'x, -y+1/2, z'
6 'x, y+1/2, -z'
7 'x, -y, -z'
8 'x, y, z'
9 '-x+1/2, y, -z+1/2'
10 '-x+1/2, -y, z+1/2'
11 '-x+1/2, y+1/2, z+1/2'
12 '-x+1/2, -y+1/2, -z+1/2'
13 'x+1/2, -y, z+1/2'
14 'x+1/2, y, -z+1/2'
15 'x+1/2, -y+1/2, -z+1/2'
16 'x+1/2, y+1/2, z+1/2'
loop_
_atom_type_symbol
_atom_type_oxidation_number
Cr3+ 3
P5+ 5
O2- -2
loop_
_atom_site_label
_atom_site_type_symbol
_atom_site_symmetry_multiplicity
_atom_site_Wyckoff_symbol
_atom_site_fract_x
_atom_site_fract_y
_atom_site_fract_z
_atom_site_B_iso_or_equiv
_atom_site_occupancy
Cr1 Cr3+ 4 b 0.5 0.5 0 0.02(3) 1.
Cr2 Cr3+ 8 g 0.25 0.3648(4) 0.25 0.02(3) 1.
P1 P5+ 4 e 0.5 0.25 0.0838(8) 0.02(3) 1.
P2 P5+ 8 g 0.25 0.5740(3) 0.25 0.02(3) 1.
O1 O2- 8 i 0.3780(3) 0.25 0.2265(5) 0.02(3) 1.
O2 O2- 16 j 0.3607(2) 0.4900(2) 0.2138(4) 0.02(3) 1.
O3 O2- 16 j 0.2235(2) 0.6367(2) 0.0554(3) 0.02(3) 1.
O4 O2- 8 h 0.5 0.3488(3) -0.0444(5) 0.02(3) 1.
#End of TTdata_165282-ICSD